# vtk DataFile Version 4.2
written by meshio v4.4.6
ASCII
DATASET UNSTRUCTURED_GRID
POINTS 4470 double
-308.49 -412.0 0.0 -303.47 -102.7 0.0 -292.44 -45.51 0.0 -292.44 5.66 0.0 -296.45 124.05 0.0 -276.38 125.05 0.0 -280.4 317.68 0.0 -267.35 379.89 0.0 -86.76 376.88 0.0 -65.69 319.69 0.0 -63.69 144.11 0.0 62.73 141.1 0.0 66.74 359.82 0.0 89.82 389.92 0.0 246.33 385.91 0.0 268.4 308.65 0.0 264.39 143.11 0.0 277.43 139.1 0.0 279.44 -82.63 0.0 294.49 -412.0 0.0 -60.68 22.71 0.0 56.71 20.71 0.0 56.71 112.01 0.0 -59.67 112.01 0.0 59.52 -79.62 0.0 216.62 -152.14 0.0 105.44 -80.37 0.0 -238.39 -81.22 0.0 -173.07 -6.86 0.0 -107.76 -77.2 0.0 -110.17 -148.04 0.0 -237.28 -150.06 0.0 105.72 -148.04 0.0 161.2 -12.86 0.0 220.72 -80.45 0.0 -213.38 144.07 0.0 -181.21 140.04 0.0 -182.21 294.88 0.0 -196.29 318.01 0.0 -212.38 291.87 0.0 -156.07 144.07 0.0 -124.9 143.06 0.0 -124.9 293.88 0.0 -139.98 322.03 0.0 -155.07 293.88 0.0 120.43 291.87 0.0 133.5 311.98 0.0 146.57 289.86 0.0 146.57 141.05 0.0 120.43 142.06 0.0 171.71 143.06 0.0 197.85 142.06 0.0 198.85 288.85 0.0 186.79 311.98 0.0 172.71 290.86 0.0 106.35 -405.0 0.0 220.97 -405.0 0.0 223.99 -337.55 0.0 168.69 -242.03 0.0 108.36 -331.51 0.0 77.19 -405.0 0.0 76.19 -337.55 0.0 -1.23 -218.9 0.0 -82.67 -334.53 0.0 -82.67 -405.0 0.0 -117.86 -405.0 0.0 -114.85 -342.57 0.0 -175.17 -246.05 0.0 -235.5 -335.54 0.0 -235.5 -405.0 0.0 -308.32806451613 -402.02258064516 0.0 -308.16612903226 -392.04516129032 0.0 -308.00419354839 -382.06774193548 0.0 -307.84225806452 -372.09032258065 0.0 -307.68032258065 -362.11290322581 0.0 -307.51838709677 -352.13548387097 0.0 -307.3564516129 -342.15806451613 0.0 -307.19451612903 -332.18064516129 0.0 -307.03258064516 -322.20322580645 0.0 -306.87064516129 -312.22580645161 0.0 -306.70870967742 -302.24838709677 0.0 -306.54677419355 -292.27096774194 0.0 -306.38483870968 -282.2935483871 0.0 -306.22290322581 -272.31612903226 0.0 -306.06096774194 -262.33870967742 0.0 -305.89903225806 -252.36129032258 0.0 -305.73709677419 -242.38387096774 0.0 -305.57516129032 -232.4064516129 0.0 -305.41322580645 -222.42903225806 0.0 -305.25129032258 -212.45161290323 0.0 -305.08935483871 -202.47419354839 0.0 -304.92741935484 -192.49677419355 0.0 -304.76548387097 -182.51935483871 0.0 -304.6035483871 -172.54193548387 0.0 -304.44161290323 -162.56451612903 0.0 -304.27967741935 -152.58709677419 0.0 -304.11774193548 -142.60967741935 0.0 -303.95580645161 -132.63225806452 0.0 -303.79387096774 -122.65483870968 0.0 -303.63193548387 -112.67741935484 0.0 -301.63166666667 -93.168333333333 0.0 -299.79333333333 -83.636666666667 0.0 -297.955 -74.105 0.0 -296.11666666667 -64.573333333333 0.0 -294.27833333333 -55.041666666667 0.0 -292.44 -36.981666666667 0.0 -292.44 -28.453333333333 0.0 -292.44 -19.925 0.0 -292.44 -11.396666666667 0.0 -292.44 -2.8683333333334 0.0 -292.77416666667 15.525833333333 0.0 -293.10833333333 25.391666666667 0.0 -293.4425 35.2575 0.0 -293.77666666667 45.123333333333 0.0 -294.11083333333 54.989166666667 0.0 -294.445 64.855 0.0 -294.77916666667 74.720833333333 0.0 -295.11333333333 84.586666666666 0.0 -295.4475 94.4525 0.0 -295.78166666667 104.31833333333 0.0 -296.11583333333 114.18416666667 0.0 -286.415 124.55 0.0 -276.581 134.6815 0.0 -276.782 144.313 0.0 -276.983 153.9445 0.0 -277.184 163.576 0.0 -277.385 173.2075 0.0 -277.586 182.839 0.0 -277.787 192.4705 0.0 -277.988 202.102 0.0 -278.189 211.7335 0.0 -278.39 221.365 0.0 -278.591 230.9965 0.0 -278.792 240.628 0.0 -278.993 250.2595 0.0 -279.194 259.891 0.0 -279.395 269.5225 0.0 -279.596 279.154 0.0 -279.797 288.7855 0.0 -279.998 298.417 0.0 -280.199 308.0485 0.0 -278.53571428571 326.56714285714 0.0 -276.67142857143 335.45428571429 0.0 -274.80714285714 344.34142857143 0.0 -272.94285714286 353.22857142857 0.0 -271.07857142857 362.11571428571 0.0 -269.21428571429 371.00285714286 0.0 -257.84526315789 379.73157894737 0.0 -248.34052631579 379.57315789474 0.0 -238.83578947368 379.41473684211 0.0 -229.33105263158 379.25631578947 0.0 -219.82631578947 379.09789473684 0.0 -210.32157894737 378.93947368421 0.0 -200.81684210526 378.78105263158 0.0 -191.31210526316 378.62263157895 0.0 -181.80736842105 378.46421052632 0.0 -172.30263157895 378.30578947368 0.0 -162.79789473684 378.14736842105 0.0 -153.29315789474 377.98894736842 0.0 -143.78842105263 377.83052631579 0.0 -134.28368421053 377.67210526316 0.0 -124.77894736842 377.51368421053 0.0 -115.27421052632 377.35526315789 0.0 -105.76947368421 377.19684210526 0.0 -96.264736842105 377.03842105263 0.0 -83.75 368.71 0.0 -80.74 360.54 0.0 -77.73 352.37 0.0 -74.72 344.2 0.0 -71.71 336.03 0.0 -68.7 327.86 0.0 -65.578888888889 309.93555555556 0.0 -65.467777777778 300.18111111111 0.0 -65.356666666667 290.42666666667 0.0 -65.245555555556 280.67222222222 0.0 -65.134444444444 270.91777777778 0.0 -65.023333333333 261.16333333333 0.0 -64.912222222222 251.40888888889 0.0 -64.801111111111 241.65444444444 0.0 -64.69 231.9 0.0 -64.578888888889 222.14555555556 0.0 -64.467777777778 212.39111111111 0.0 -64.356666666667 202.63666666667 0.0 -64.245555555556 192.88222222222 0.0 -64.134444444444 183.12777777778 0.0 -64.023333333333 173.37333333333 0.0 -63.912222222222 163.61888888889 0.0 -63.801111111111 153.86444444444 0.0 -53.965384615385 143.87846153846 0.0 -44.240769230769 143.64692307692 0.0 -34.516153846154 143.41538461538 0.0 -24.791538461538 143.18384615385 0.0 -15.066923076923 142.95230769231 0.0 -5.3423076923075 142.72076923077 0.0 4.3823076923079 142.48923076923 0.0 14.106923076923 142.25769230769 0.0 23.831538461539 142.02615384615 0.0 33.556153846154 141.79461538462 0.0 43.280769230769 141.56307692308 0.0 53.005384615385 141.33153846154 0.0 62.912272727273 151.04181818182 0.0 63.094545454545 160.98363636364 0.0 63.276818181818 170.92545454545 0.0 63.459090909091 180.86727272727 0.0 63.641363636364 190.80909090909 0.0 63.823636363636 200.75090909091 0.0 64.005909090909 210.69272727273 0.0 64.188181818182 220.63454545455 0.0 64.370454545455 230.57636363636 0.0 64.552727272727 240.51818181818 0.0 64.735 250.46 0.0 64.917272727273 260.40181818182 0.0 65.099545454545 270.34363636364 0.0 65.281818181818 280.28545454545 0.0 65.464090909091 290.22727272727 0.0 65.646363636364 300.16909090909 0.0 65.828636363636 310.11090909091 0.0 66.010909090909 320.05272727273 0.0 66.193181818182 329.99454545455 0.0 66.375454545455 339.93636363636 0.0 66.557727272727 349.87818181818 0.0 72.51 367.345 0.0 78.28 374.87 0.0 84.05 382.395 0.0 99.601875 389.669375 0.0 109.38375 389.41875 0.0 119.165625 389.168125 0.0 128.9475 388.9175 0.0 138.729375 388.666875 0.0 148.51125 388.41625 0.0 158.293125 388.165625 0.0 168.075 387.915 0.0 177.856875 387.664375 0.0 187.63875 387.41375 0.0 197.420625 387.163125 0.0 207.2025 386.9125 0.0 216.984375 386.661875 0.0 226.76625 386.41125 0.0 236.548125 386.160625 0.0 248.78222222222 377.32555555556 0.0 251.23444444444 368.74111111111 0.0 253.68666666667 360.15666666667 0.0 256.13888888889 351.57222222222 0.0 258.59111111111 342.98777777778 0.0 261.04333333333 334.40333333333 0.0 263.49555555556 325.81888888889 0.0 265.94777777778 317.23444444444 0.0 268.16411764706 298.91235294118 0.0 267.92823529412 289.17470588235 0.0 267.69235294118 279.43705882353 0.0 267.45647058824 269.69941176471 0.0 267.22058823529 259.96176470588 0.0 266.98470588235 250.22411764706 0.0 266.74882352941 240.48647058824 0.0 266.51294117647 230.74882352941 0.0 266.27705882353 221.01117647059 0.0 266.04117647059 211.27352941176 0.0 265.80529411765 201.53588235294 0.0 265.56941176471 191.79823529412 0.0 265.33352941176 182.06058823529 0.0 265.09764705882 172.32294117647 0.0 264.86176470588 162.58529411765 0.0 264.62588235294 152.84764705882 0.0 270.91 141.105 0.0 277.51739130435 129.45956521739 0.0 277.6047826087 119.81913043478 0.0 277.69217391304 110.17869565217 0.0 277.77956521739 100.53826086957 0.0 277.86695652174 90.897826086956 0.0 277.95434782609 81.257391304348 0.0 278.04173913043 71.616956521739 0.0 278.12913043478 61.97652173913 0.0 278.21652173913 52.336086956522 0.0 278.30391304348 42.695652173913 0.0 278.39130434783 33.055217391304 0.0 278.47869565217 23.414782608695 0.0 278.56608695652 13.774347826087 0.0 278.65347826087 4.1339130434781 0.0 278.74086956522 -5.5065217391306 0.0 278.82826086957 -15.146956521739 0.0 278.91565217391 -24.787391304348 0.0 279.00304347826 -34.427826086957 0.0 279.09043478261 -44.068260869565 0.0 279.17782608696 -53.708695652174 0.0 279.2652173913 -63.349130434783 0.0 279.35260869565 -72.989565217391 0.0 279.89606060606 -92.610909090909 0.0 280.35212121212 -102.59181818182 0.0 280.80818181818 -112.57272727273 0.0 281.26424242424 -122.55363636364 0.0 281.7203030303 -132.53454545455 0.0 282.17636363636 -142.51545454545 0.0 282.63242424242 -152.49636363636 0.0 283.08848484848 -162.47727272727 0.0 283.54454545455 -172.45818181818 0.0 284.00060606061 -182.43909090909 0.0 284.45666666667 -192.42 0.0 284.91272727273 -202.40090909091 0.0 285.36878787879 -212.38181818182 0.0 285.82484848485 -222.36272727273 0.0 286.28090909091 -232.34363636364 0.0 286.73696969697 -242.32454545455 0.0 287.19303030303 -252.30545454545 0.0 287.64909090909 -262.28636363636 0.0 288.10515151515 -272.26727272727 0.0 288.56121212121 -282.24818181818 0.0 289.01727272727 -292.22909090909 0.0 289.47333333333 -302.21 0.0 289.92939393939 -312.19090909091 0.0 290.38545454545 -322.17181818182 0.0 290.84151515152 -332.15272727273 0.0 291.29757575758 -342.13363636364 0.0 291.75363636364 -352.11454545455 0.0 292.2096969697 -362.09545454545 0.0 292.66575757576 -372.07636363636 0.0 293.12181818182 -382.05727272727 0.0 293.57787878788 -392.03818181818 0.0 294.03393939394 -402.01909090909 0.0 284.60508196721 -412.0 0.0 274.72016393443 -412.0 0.0 264.83524590164 -412.0 0.0 254.95032786885 -412.0 0.0 245.06540983607 -412.0 0.0 235.18049180328 -412.0 0.0 225.29557377049 -412.0 0.0 215.4106557377 -412.0 0.0 205.52573770492 -412.0 0.0 195.64081967213 -412.0 0.0 185.75590163934 -412.0 0.0 175.87098360656 -412.0 0.0 165.98606557377 -412.0 
[...]
POINT_DATA 4470
FIELD FieldData 1
node_groups 1 4470 long
5 6 7 8 9 10 11 12 13 14 15 16 17 18 19 20 21 22 23 24 25 26 27 28 29 31 33 34 35 36 40 41 42 44 46 47 48 49 51 53 54 55 56 58 60 61 63 65 66 67 68 69 70 72 74 75 76 77 79 81 82 83 85 87 88 89 90 92 94 95 5 5 5 5 5 5 5 5 5 5 5 5 5 5 5 5 5 5 5 5 5 5 5 5 5 5 5 5 5 5 6 6 6 6 6 7 7 7 7 7 8 8 8 8 8 8 8 8 8 8 8 9 10 10 10 10 10 10 10 10 10 10 10 10 10 10 10 10 10 10 10 11 11 11 11 11 11 12 12 12 12 12 12 12 12 12 12 12 12 12 12 12 12 12 12 14 14 14 14 14 14 15 15 15 15 15 15 15 15 15 15 15 15 15 15 15 15 15 16 16 16 16 16 16 16 16 16 16 16 16 17 17 17 17 17 17 17 17 17 17 17 17 17 17 17 17 17 17 17 17 17 18 18 18 19 19 19 19 19 19 19 19 19 19 19 19 19 19 19 20 20 20 20 20 20 20 20 21 21 21 21 21 21 21 21 21 21 21 21 21 21 21 21 22 23 23 23 23 23 23 23 23 23 23 23 23 23 23 23 23 23 23 23 23 23 23 24 24 24 24 24 24 24 24 24 24 24 24 24 24 24 24 24 24 24 24 24 24 24 24 24 24 24 24 24 24 24 24 25 25 25 25 25 25 25 25 25 25 25 25 25 25 25 25 25 25 25 25 25 25 25 25 25 25 25 25 25 25 25 25 25 25 25 25 25 25 25 25 25 25 25 25 25 25 25 25 25 25 25 25 25 25 25 25 25 25 25 25 26 26 26 26 26 26 26 26 26 26 26 27 27 27 27 27 27 27 27 27 28 28 28 28 28 28 28 28 28 28 28 29 29 29 29 29 29 29 29 30 30 30 30 30 30 30 30 30 30 30 30 30 30 30 30 30 30 30 30 30 30 30 30 30 30 30 30 30 30 30 30 30 30 30 30 30 31 31 31 31 31 31 33 33 33 33 33 33 33 34 34 34 34 34 34 34 34 34 34 35 35 35 35 35 35 35 35 35 35 36 36 36 36 36 36 36 37 37 37 37 37 37 37 37 37 37 37 38 38 38 38 38 38 39 39 39 39 39 39 39 39 39 40 40 40 40 40 40 40 40 40 41 41 41 42 42 42 42 42 42 42 42 42 42 42 42 42 42 43 43 43 43 43 43 43 43 43 43 43 43 43 43 43 44 44 44 45 45 46 46 46 47 47 47 48 48 48 49 49 49 49 49 49 49 49 49 49 49 49 49 49 49 50 50 50 50 50 50 50 50 50 50 50 50 50 50 51 51 52 52 52 52 52 52 52 52 52 52 52 52 52 52 53 53 53 53 53 53 53 53 53 53 53 53 53 53 54 54 55 55 56 56 57 57 58 58 58 58 58 58 58 58 58 58 58 58 58 58 59 59 60 60 60 60 60 60 60 60 60 60 60 60 60 60 61 61 61 61 61 61 62 62 62 62 62 62 62 62 62 62 62 63 63 63 63 63 63 64 64 64 64 64 64 64 64 64 64 64 65 65 65 65 65 65 65 65 65 65 65 65 66 66 66 66 66 66 66 66 66 66 66 66 66 66 67 67 67 67 67 67 67 67 67 67 67 67 67 67 67 68 68 68 68 68 68 68 68 68 68 68 69 69 69 69 69 69 69 69 69 69 69 69 70 70 70 70 70 70 70 71 71 71 71 71 71 71 71 71 71 71 71 71 71 71 72 72 72 72 72 72 73 73 73 73 73 73 73 74 74 74 74 74 74 74 74 74 74 74 75 75 75 75 75 75 76 76 76 76 76 76 76 76 76 76 76 76 13 13 13 13 13 13 13 13 13 13 13 13 13 13 13 13 13 13 13 13 13 13 13 13 13 13 13 13 13 13 13 13 13 13 13 13 13 13 13 13 13 13 13 13 13 13 13 13 13 13 13 13 13 13 13 13 13 13 13 13 13 13 13 13 13 13 13 13 13 13 13 13 13 13 13 13 13 13 13 13 13 13 13 13 13 13 13 13 13 13 13 13 13 13 13 13 13 13 13 13 13 13 13 13 13 13 13 13 13 13 13 13 13 13 13 13 13 13 13 13 13 13 13 13 13 13 13 13 13 13 13 13 13 13 13 13 13 13 13 13 13 13 13 13 13 13 13 13 13 13 13 13 13 13 13 13 13 13 13 13 13 13 13 13 13 13 13 13 13 13 13 13 13 13 13 13 13 13 13 13 13 13 13 13 13 13 13 13 13 13 13 13 13 13 13 13 13 13 13 13 13 13 13 13 13 13 13 13 13 13 13 13 13 13 13 13 13 13 13 13 13 13 13 13 13 13 13 13 13 13 13 13 13 13 13 13 13 13 13 13 13 13 13 13 13 13 13 13 13 13 13 13 13 13 13 13 13 13 13 13 13 13 13 13 13 13 13 13 13 13 13 13 13 13 13 13 13 13 13 13 13 13 13 13 13 13 13 13 13 13 13 13 13 13 13 13 13 13 13 13 13 13 13 13 13 13 13 13 13 13 13 13 13 13 13 13 13 13 13 13 13 13 13 13 13 13 13 13 13 13 13 13 13 13 13 13 13 13 13 13 13 13 13 13 13 13 13 13 13 13 13 13 13 13 13 13 13 13 13 13 13 13 13 13 13 13 13 13 13 13 13 13 13 13 13 13 13 13 13 13 13 13 13 13 13 13 13 13 13 13 13 13 13 13 13 13 13 13 13 13 13 13 13 13 13 13 13 13 13 13 13 13 13 13 13 13 13 13 13 13 13 13 13 13 13 13 13 13 13 13 13 13 13 13 13 13 13 13 13 13 13 13 13 13 13 13 13 13 13 13 13 13 13 13 13 13 13 13 13 13 13 13 13 13 13 13 13 13 13 13 13 13 13 13 13 13 13 13 13 13 13 13 13 13 13 13 13 13 13 13 13 13 13 13 13 13 13 13 13 13 13 13 13 13 13 13 13 13 13 13 13 13 13 13 13 13 13 13 13 13 13 13 13 13 13 13 13 13 13 13 13 13 13 13 13 13 13 13 13 13 13 13 13 13 13 13 13 13 13 13 13 13 13 13 13 13 13 13 13 13 13 13 13 13 13 13 13 13 13 13 13 13 13 13 13 13 13 13 13 13 13 13 13 13 13 13 13 13 13 13 13 13 13 13 13 13 13 13 13 13 13 13 13 13 13 13 13 13 13 13 13 13 13 13 13 13 13 13 13 13 13 13 13 13 13 13 13 13 13 13 13 13 13 13 13 13 13 13 13 13 13 13 13 13 13 13 13 13 13 13 13 13 13 13 13 13 13 13 13 13 13 13 13 13 13 13 13 13 13 13 13 13 13 13 13 13 13 13 13 13 13 13 13 13 13 13 13 13 13 13 13 13 13 13 13 13 13 13 13 13 13 13 13 13 13 13 13 13 13 13 13 13 13 13 13 13 13 13 13 13 13 13 13 13 13 13 13 13 13 13 13 13 13 13 13 13 13 13 13 13 13 13 13 13 13 13 13 13 13 13 13 13 13 13 13 13 13 13 13 13 13 13 13 13 13 13 13 13 13 13 13 13 13 13 13 13 13 13 13 13 13 13 13 13 13 13 13 13 13 13 13 13 13 13 13 13 13 13 13 13 13 13 13 13 13 13 13 13 13 13 13 13 13 13 13 13 13 13 13 13 13 13 13 13 13 13 13 13 13 13 13 13 13 13 13 13 13 13 13 13 13 13 13 13 13 13 13 13 13 13 13 13 13 13 13 13 13 13 13 13 13 13 13 13 13 13 13 13 13 13 13 13 13 13 13 13 13 13 13 13 13 13 13 13 13 13 13 13 13 13 13 13 13 13 13 13 13 13 13 13 13 13 13 13 13 13 13 13 13 13 13 13 13 13 13 13 13 13 13 13 13 13 13 13 13 13 13 13 13 13 13 13 13 13 13 13 13 13 13 13 13 13 13 13 13 13 13 13 13 13 13 13 13 13 13 13 13 13 13 13 13 13 13 13 13 13 13 13 13 13 13 13 13 13 13 13 13 13 13 13 13 13 13 13 13 13 13 13 13 13 13 13 13 13 13 13 13 13 13 13 13 13 13 13 13 13 13 13 13 13 13 13 13 13 13 13 13 13 13 13 13 13 13 13 13 13 13 13 13 13 13 13 13 13 13 13 13 13 13 13 13 13 13 13 13 13 13 13 13 13 13 13 13 13 13 13 13 13 13 13 13 13 13 13 13 13 13 13 13 13 13 13 13 13 13 13 13 13 13 13 13 13 13 13 13 13 13 13 13 13 13 13 13 13 13 13 13 13 13 13 13 13 13 13 13 13 13 13 13 13 13 13 13 13 13 13 13 13 13 13 13 13 13 13 13 13 13 13 13 13 13 13 13 13 13 13 13 13 13 13 13 13 13 13 13 13 13 13 13 13 13 13 13 13 13 13 13 13 13 13 13 13 13 13 13 13 13 13 13 13 13 13 13 13 13 13 13 13 13 13 13 13 13 13 13 13 13 13 13 13 13 13 13 13 13 13 13 13 13 13 13 13 13 13 13 13 13 13 13 13 13 13 13 13 13 13 13 13 13 13 13 13 13 13 13 13 13 13 13 13 13 13 13 13 13 13 13 13 13 13 13 13 13 13 13 13 13 13 13 13 13 13 13 13 13 13 13 13 13 13 13 13 13 13 13 13 13 13 13 13 13 13 13 13 13 13 13 13 13 13 13 13 13 13 13 13 13 13 13 13 13 13 13 13 13 13 13 13 13 13 13 13 13 13 13 13 13 13 13 13 13 13 13 13 13 13 13 13 13 13 13 13 13 13 13 13 13 13 13 13 13 13 13 13 13 13 13 13 13 13 13 13 13 13 13 13 13 13 13 13 13 13 13 13 13 13 13 13 13 13 13 13 13 13 13 13 13 13 13 13 13 13 13 13 13 13 13 13 13 13 13 13 13 13 13 13 13 13 13 13 13 13 13 13 13 13 13 13 13 13 13 13 13 13 13 13 13 13 13 13 13 13 13 13 13 13 13 13 13 13 13 13 13 13 13 13 13 13 13 13 13 13 13 13 13 13 13 13 13 13 13 13 13 13 13 13 13 13 13 13 13 13 13 13 13 13 13 13 13 13 13 13 13 13 13 13 13 13 13 13 13 13 13 13 13 13 13 13 13 13 13 13 13 13 13 13 13 13 13 13 13 13 13 13 13 13 13 13 13 13 13 13 13 13 13 13 13 13 13 13 13 13 13 13 13 13 13 13 13 13 13 13 13 13 13 13 13 13 13 13 13 13 13 13 13 13 13 13 13 13 13 13 13 13 13 13 13 13 13 13 13 13 13 13 13 13 13 13 13 13 13 13 13 13 13 13 13 13 13 13 13 13 13 13 13 13 13 13 13 13 13 13 13 13 13 13 13 13 13 13 13 13 13 13 13 13 13 13 13 13 13 13 13 13 13 13 13 13 13 13 13 13 13 13 13 13 13 13 13 13 13 13 13 13 13 13 13 13 13 13 13 13 13 13 13 13 13 13 13 13 13 13 13 13 13 13 13 13 13 13 13 13 13 13 13 13 13 13 13 13 13 13 13 13 13 13 13 13 13 13 13 13 13 13 13 13 13 13 13 13 13 13 13 13 13 13 13 13 13 13 13 13 13 13 13 13 13 13 13 13 13 13 13 13 13 13 13 13 13 13 13 13 13 13 13 13 13 13 13 13 13 13 13 13 13 13 13 13 13 13 13 13 13 13 13 13 13 13 13 13 13 13 13 13 13 13 13 13 13 13 13 13 13 13 13 13 13 13 13 13 13 13 13 13 13 13 13 13 13 13 13 13 13 13 13 13 13 13 13 13 13 13 13 13 13 13 13 13 13 13 13 13 13 13 13 13 13 13 13 13 13 13 13 13 13 13 13 13 13 13 13 13 13 13 13 13 13 13 13 13 13 13 13 13 13 13 13 13 13 13 13 13 13 13 13 13 13 13 13 13 13 13 13 13 13 13 13 13 13 13 13 13 13 13 13 13 13 13 13 13 13 13 13 13 13 13 13 13 13 13 13 13 13 13 13 13 13 13 13 13 13 13 13 13 13 13 13 13 13 13 13 13 13 13 13 13 13 13 13 13 13 13 13 13 13 13 13 13 13 13 13 13 13 13 13 13 13 13 13 13 13 13 13 13 13 13 13 13 13 13 13 13 13 13 13 13 13 13 13 13 13 13 13 13 13 13 13 13 13 13 13 13 13 13 13 13 13 13 13 13 13 13 13 13 13 13 13 13 13 13 13 13 13 13 13 13 13 13 13 13 13 13 13 13 13 13 13 13 13 13 13 13 13 13 13 13 13 13 13 13 13 13 13 13 13 13 13 13 13 13 13 13 13 13 13 13 13 13 13 13 13 13 13 13 13 13 13 13 13 13 13 13 13 13 13 13 13 13 13 13 13 13 13 13 13 13 13 13 13 13 13 13 13 13 13 13 13 13 13 13 13 13 13 13 13 13 13 13 13 13 13 13 13 13 13 13 13 13 13 13 13 13 13 13 13 13 13 13 13 13 13 13 13 13 13 13 13 13 13 13 13 13 13 13 13 13 13 13 13 13 13 13 13 13 13 13 13 13 13 13 13 13 13 13 13 13 13 13 13 13 13 13 13 13 13 13 13 13 13 13 13 13 13 13 13 13 13 13 13 13 13 13 13 13 13 13 13 13 13 13 13 13 13 13 13 13 13 13 13 13 13 13 13 13 13 13 13 13 13 13 13 13 13 13 13 13 13 13 13 13 13 13 13 13 13 13 13 13 13 13 13 13 13 13 13 13 13 13 13 13 13 13 13 13 13 13 13 13 13 13 13 13 13 13 13 13 13 13 13 13 13 13 13 13 13 13 13 13 13 13 13 13 13 13 13 13 13 13 13 13 13 13 13 13 13 13 13 13 13 13 13 13 13 13 13 13 13 13 13 13 13 13 13 13 13 13 13 13 13 13 13 13 13 13 13 13 13 13 13 13 13 13 13 13 13 13 13 13 13 13 13 13 13 13 13 13 13 13 13 13 13 13 13 13 13 13 13 13 13 13 13 13 13 13 13 13 13 13 13 13 13 13 13 13 13 13 13 13 13 13 13 13 13 13 13 13 13 13 13 13 13 13 13 13 13 13 13 13 13 13 13 13 13 13 13 13 13 13 13 13 13 13 13 13 13 13 13 13 13 13 13 13 13 13 13 13 13 13 13 13 13 13 13 13 13 13 13 13 13 13 13 13 13 13 13 13 13 13 13 13 13 13 13 13 13 13 13 13 13 13 13 13 13 13 13 13 13 13 13 13 13 13 13 13 13 13 13 13 13 13 13 13 13 13 13 13 13 13 13 13 13 13 13 13 13 13 13 13 13 13 13 13 13 13 13 13 13 13 13 13 13 13 13 13 13 13 13 13 13 13 13 13 13 13 13 13 13 13 13 13 13 13 13 13 13 13 13 13 13 13 13 13 13 13 13 13 13 13 13 13 13 13 13 13 13 13 13 13 13 13 13 13 13 13 13 13 13 13 13 13 13 13 13 13 13 13 13 13 13 13 13 13 13 13 13 13 13 13 13 13 13 13 13 13 13 13 13 13 13 13 13 13 13 13 13 13 13 13 13 13 13 13 13 13 13 13 13 13 13 13 13 13 13 13 13 13 13 13 13 13 13 13 13 13 13 13 13 13 13 13 13 13 13 13 13 13 13 13 13 13 13 13 13 13 13 13 13 13 13 13 13 13 13 13 13 13 13 13 13 13 13 13 13 13 13 13 13 13 13 13 13 13 13 13 13 13 13 13 13 13 13 13 13 13 13 13 13 13 13 13 13 13 13 13 13 13 13 13 13 13 13 13 13 13 13 13 13 13 13 13 13 13 13 13 13 13 13 13 13 13 13 13 13 13 13 13 13 13 13 13 13 13 13 13 13 13 13 13 13 13 13 13 13 13 13 13 13 13 13 13 13 13 13 13 13 13 13 13 13 13 13 13 13 13 13 13 13 13 13 13 13 13 13 13 13 13 13 13 13 13 13 13 13 13 13 13 13 13 13 13 13 13 13 13 13 13 13 13 13 13 13 13 13 13 13 13 13 13 13 13 13 13 13 13 13 13 13 13 13 13 13 13 13 13 13 13 13 13 13 13 13 13 13 13 13 13 13 13 13 13 13 13 13 13 13 13 13 13 13 13 13 13 13 13 13 13 13 13 13 13 13 13 13 13 13 13 13 13 13 13 13 13 13 13 13 13 13 13 13 13 13 13 13 13 13 13 13 13 13 13 13 13 13 13 13 13 13 13 13 13 13 13 13 13 13 13 13 13 13 13 13 13 13 13 13 13 13 13 13 13 13 13 13 13 13 13 13 13 13 13 13 13 13 13 13 13 13 13 13 13 13 13 13 13 13 13 13 13 13 13 13 13 13 13 13 13 13 13 13 13 13 13 13 13 13 13 13 13 13 13 13 13 13 13 13 13 13 13 13 13 13 13 13 13 13 13 13 13 13 13 13 13 13 13 13 13 13 13 13 13 13 13 13 13 13 13 13 13 13 13 13 13 13 13 13 13 13 13 13 13 13 13 13 13 13 13 13 13 13 13 13 13 13 13 13 13 13 13 13 13 13 13 13 13 13 13 13 13 13 13 13 13 13 13 13 13 13 13 13 13 13 13 13 13 13 13 13 13 13 13 13 13 13 13 13 13 13 13 13 13 13 13 13 13 13 13 13 13 13 13 13 13 13 13 13 13 13 13 13 13 13 13 13 13 13 13 13 13 13 13 13 13 13 13 13 13 13 13 13 13 13 13 13 13 13 13 13 13 13 13 13 13 13 13 13 13 13 13 13 13 13 13 13 13 13 13 13 13 13 13 13 13 13 13 13 13 13 13 13 13 13 13 13 13 13 13 13 13 13 13 13 13 13 13 13 13 13 13 13 13 13 13 13 13 13 13 13 13 13 13 13 13 13 13 13 13 13 13 13 13 13 13 13 13 13 13 13 13 13 13 13 13 13 13 13 13 13 13 13 13 13 13 13 13 13 13 13 13 13 13 13 13 13 13 13 13 13 13 13 13 13 13 13 13 13 13 13 13 13 13 13 13 13 13 13 13 13 13 13 13 13 13 13 13 13 13 13 13 13 13 13 13 13 13 13 13 13 13 13 13 13 13 13 13 13 13 13 13 13 13 13 13 13 13 13 13 13 13 13 13 13 13 13 13 13 13 13 13 13 13 13 13 13 13 13 13 13 13 13 13 13 13 13 13 13 13 13 13 13 13 13 13 13 13 13 13 13 13 13 13 13 13 13 13 13 13 13 13 13 13 13 13 13 13 13 13 13 13 13 13 13 13 13 13 13 13 13 13 13 13 13 13 13 13 13 13 13 13 13 13 13 13 13 13 13 13 13 13 13 13 13 13 13 13 13 13 13 13 13 13 13 13 13 13 13 13 13 13 13 13 13 13 13 13 13 13 13 13 13 13 13 13 13 13 13 13 13 13 13 13 13 13 13 13 13 13 13 13 13 13 13 13 13 13 13 13 13 13 13 13 13 13 13 13 13 13 13 13 13 13 13 13 13 13 13 13 13 13 13 13 13 13 13 13 13 13 13 13 13 13 13 13 13 13 13 13 13 13 13 13 13 13 13 13 13 13 13 13 13 13 13 13 13 13 13 13 13 13 13 13 13 13 13 13 13 13 13 13 13 13 13 13 13 13 13 13 13 13 13 13 13 13 13 13 13 13 13 13 13 13 13 13 13 13 13 13 13 13 13 13 13 13 13 13 13 13 13 13 13 13 13 13 13 13 13 13 13 13 13 13 13 13 13 13 13 13 13 13 13 13 13 13 13 13 13 13 13 13 13 13 13 13 13 13 13 13 13 13 13 13 13 13 13 13 13 13 13 13 13 13 13 13 13 13 13 13 13 13 13 13 13 13 13 13 13 13 13 13 13 13 13 13 13 13 13 13 13 13 13 13 13 13 13 13 13 13 13 13 13 13 13 13 13 13 13 13 13 13 13 13 13 13 13 13 13 13
CELL_DATA 8126
FIELD FieldData 1
mat_id 1 8126 long